<?xml version="1.0" encoding="UTF-8"?>

<!-- generated on 2022-07-09 19:02:08 by Eclipse SUMO GUI Version 1.12.0
<configuration xmlns:xsi="http://www.w3.org/2001/XMLSchema-instance" xsi:noNamespaceSchemaLocation="http://sumo.dlr.de/xsd/sumoConfiguration.xsd">

    <input>
        <net-file value="D:\Project\update\MARL\data\exp.net.xml"/>
        <route-files value="D:\Project\update\MARL\data\exp.rou.xml"/>
        <additional-files value="D:\Project\update\MARL\data\exp.add.xml"/>
    </input>

    <time>
        <begin value="0"/>
        <end value="1200"/>
    </time>

</configuration>
-->

<detector xmlns:xsi="http://www.w3.org/2001/XMLSchema-instance" xsi:noNamespaceSchemaLocation="http://sumo.dlr.de/xsd/det_e2_file.xsd">
</detector>
